
Predictions were generated on 06-Oct-2015 at 12:27:27 usingBeamDyn (v1.00.00, 25-July-2015)




Time        	RootFxr   	RootFyr   	RootFzr   	RootMxr   	RootMyr   	RootMzr   	N1Fxl     	N1Fyl     	N1Fzl     	N1Mxl     	N1Myl     	N1Mzl     	TipTDxr   	TipTDyr   	TipTDzr   	TipRDxr   	TipRDyr   	TipRDzr   
 (s)            	(N)       	(N)       	(N)       	(N-m)     	(N-m)     	(N-m)     	(N)       	(N)       	(N)       	(N-m)     	(N-m)     	(N-m)     	(m)       	(m)       	(m)       	(-)       	(-)       	(-)       
       0.000000	 0.000E+00	 0.000E+00	 0.000E+00	 0.000E+00	 0.000E+00	 0.000E+00	 0.000E+00	 0.000E+00	 4.460E-07	 0.000E+00	 0.000E+00	 0.000E+00	 0.000E+00	 0.000E+00	 0.000E+00	 0.000E+00	 0.000E+00	 0.000E+00
       0.002000	 0.000E+00	 0.000E+00	 0.000E+00	 0.000E+00	 0.000E+00	 0.000E+00	-5.784E+05	-1.368E+05	-3.852E-03	 4.320E+06	-1.827E+07	-1.170E+05	 9.561E+00	-6.343E-01	-1.293E+00	 2.139E-02	 4.188E-01	 9.883E-03
